% Model:              Calibration1.mph
% Version:            COMSOL 5.5.0.292
% Date:               Jul 28 2020, 11:43
% Dimension:          1
% Nodes:              631
% Expressions:        1
% Description:        Line graph
% x                       Height
0                         5.35855216522577E8
0.007936507936507936      5.3306033407867676E8
0.015873015873015872      5.3029314206468093E8
0.02380952380952381       5.2755238371630573E8
0.031746031746031744      5.248371238989583E8
0.03968253968253968       5.2214654715333956E8
0.04761904761904762       5.1947981365783703E8
0.05555555555555555       5.168359731082783E8
0.06349206349206349       5.1421393651440656E8
0.07142857142857144       5.116125059136577E8
0.07936507936507936       5.0903065325761175E8
0.08730158730158731       5.0646996792243105E8
0.09523809523809523       5.039274811812821E8
0.10317460317460317       5.014029098984359E8
0.11111111111111112       4.98895887103236E8
0.11904761904761904       4.964060433674573E8
0.12698412698412698       4.939329314026473E8
0.1349206349206349        4.9147598513381815E8
0.14285714285714285       4.890345132488887E8
0.15079365079365079       4.866077272243968E8
0.15873015873015872       4.8419491461032784E8
0.16666666666666669       4.8179791344409764E8
0.1746031746031746        4.7941411074240196E8
0.18253968253968253       4.7704349390380615E8
0.1904761904761905        4.746859695815307E8
0.1984126984126984        4.723413992707522E8
0.2063492063492063        4.700095492886791E8
0.21428571428571427       4.6769006593110865E8
0.22222222222222224       4.6538247580491006E8
0.23015873015873017       4.6308621133693886E8
0.23809523809523808       4.6080074062425673E8
0.24603174603174605       4.5852792397375697E8
0.25396825396825395       4.562654378537564E8
0.2619047619047619        4.540133930471133E8
0.2698412698412698        4.517718206128993E8
0.2777777777777778        4.495406927682466E8
0.28571428571428575       4.4731988484380287E8
0.29365079365079366       4.4510915747850394E8
0.30158730158730157       4.429081590531632E8
0.30952380952380953       4.4071644836333305E8
0.31746031746031744       4.385335983177403E8
0.3253968253968254        4.3636140776656246E8
0.3333333333333333        4.3419778167971504E8
0.3412698412698413        4.320428855298075E8
0.3492063492063492        4.298968096222579E8
0.35714285714285715       4.2775958169133586E8
0.3650793650793651        4.256311357923657E8
0.373015873015873         4.2351129827716744E8
0.38095238095238093       4.213997908522615E8
0.38888888888888884       4.192962507202508E8
0.3968253968253968        4.172003169028558E8
0.40476190476190477       4.151137043396741E8
0.4126984126984127        4.1303449826245403E8
0.42063492063492064       4.109628885375496E8
0.42857142857142855       4.088989946672509E8
0.4365079365079365        4.06842873567487E8
0.4444444444444444        4.047944930710346E8
0.4523809523809524        4.027537202554613E8
0.46031746031746035       4.0072032459531647E8
0.4682539682539683        3.986939959390035E8
0.47619047619047616       3.9667441865794885E8
0.48412698412698413       3.9466322051438755E8
0.4920634920634921        3.9265863341094434E8
0.5                       3.906608571581397E8
0.5079365079365079        3.8867002534841275E8
0.5158730158730158        3.866862104827786E8
0.5238095238095238        3.847094008345487E8
0.5317460317460317        3.827394903984564E8
0.5396825396825397        3.807762819247748E8
0.5476190476190477        3.7881950303878707E8
0.5555555555555556        3.768688713600874E8
0.5634920634920635        3.7492592992101496E8
0.5714285714285715        3.729890341019641E8
0.5793650793650794        3.7105838625085074E8
0.5873015873015873        3.6913412604767996E8
0.5952380952380953        3.672163342164043E8
0.6031746031746031        3.653050119979847E8
0.611111111111111         3.6340007229976124E8
0.619047619047619         3.615013425207455E8
0.626984126984127         3.596085790531743E8
0.6349206349206349        3.577215254842124E8
0.6428571428571429        3.5584164420131826E8
0.6507936507936507        3.5396739788355035E8
0.6587301587301586        3.520989872152209E8
0.6666666666666666        3.502365532204754E8
0.6746031746031745        3.483801803928541E8
0.6825396825396824        3.465298782919091E8
0.6904761904761904        3.446855736312211E8
0.6984126984126984        3.428471128576985E8
0.7063492063492063        3.4101427522219265E8
0.7142857142857142        3.3918682556139636E8
0.7222222222222222        3.373661496603142E8
0.7301587301587301        3.3555080579109454E8
0.738095238095238         3.337409907344935E8
0.746031746031746         3.3193684414099723E8
0.753968253968254         3.301384516657964E8
0.7619047619047619        3.283458283519569E8
0.7698412698412699        3.265589114820722E8
0.7777777777777777        3.2477756289815813E8
0.7857142857142856        3.230015807898784E8
0.7936507936507936        3.2123074797198987E8
0.8015873015873015        3.194663769850209E8
0.8095238095238095        3.1770711320291585E8
0.8174603174603174        3.159531480015941E8
0.8253968253968255        3.1420461795150536E8
0.8333333333333333        3.1246160819802743E8
0.8412698412698413        3.107241373876953E8
0.8492063492063492        3.089921511613967E8
0.8571428571428572        3.0726552421421784E8
0.8650793650793651        3.055440709222043E8
0.873015873015873         3.038275898794956E8
0.880952380952381         3.021173234732446E8
0.888888888888889         3.00411997743796E8
0.8968253968253967        2.987117978241228E8
0.9047619047619048        2.970168561194234E8
0.9126984126984128        2.953272561761147E8
0.9206349206349206        2.9364301896721977E8
0.9285714285714286        2.9196409693804246E8
0.9365079365079365        2.90290375811856E8
0.9444444444444445        2.886216841558517E8
0.9523809523809523        2.869578346746267E8
0.9603174603174603        2.853000021801906E8
0.9682539682539683        2.8364698835271925E8
0.9761904761904762        2.81998971483948E8
0.984126984126984         2.803560791112111E8
0.992063492063492         2.787183924554556E8
1                         2.770859339219561E8
1.007936507936508         2.754586616313367E8
1.0158730158730158        2.738364709808427E8
1.0238095238095237        2.7221920323586017E8
1.0317460317460316        2.7060668396123874E8
1.0396825396825395        2.6900002278242314E8
1.0476190476190477        2.6739809287161222E8
1.0555555555555554        2.6580106531034252E8
1.0634920634920635        2.642090623267127E8
1.0714285714285712        2.6262216234035102E8
1.0793650793650793        2.6104038856207186E8
1.0873015873015872        2.5946370395801035E8
1.0952380952380953        2.5789201257804385E8
1.103174603174603         2.563251672485775E8
1.1111111111111112        2.5476300547880447E8
1.119047619047619         2.5320657382843557E8
1.1269841269841272        2.5165481362453172E8
1.1349206349206349        2.5010788852852303E8
1.142857142857143         2.4856591516438308E8
1.150793650793651         2.4702896881697512E8
1.1587301587301588        2.4549707303434953E8
1.1666666666666667        2.4397019498328698E8
1.1746031746031746        2.4244824655791003E8
1.1825396825396826        2.4093109124144363E8
1.1904761904761907        2.394185777216823E8
1.1984126984126984        2.3791169139042026E8
1.2063492063492063        2.36409438859218E8
1.2142857142857144        2.3491197623105764E8
1.222222222222222         2.33419414361211E8
1.2301587301587302        2.3193182519044074E8
1.2380952380952381        2.3044923226759627E8
1.246031746031746         2.2897160646228158E8
1.2539682539682537        2.274988668675146E8
1.261904761904762         2.2603088689240944E8
1.2698412698412698        2.245675257887916E8
1.277777777777778         2.231097095004408E8
1.2857142857142856        2.2165650745441318E8
1.2936507936507935        2.2020806811577496E8
1.3015873015873014        2.1876449646835804E8
1.3095238095238095        2.1732586096003288E8
1.3174603174603174        2.1589218487392336E8
1.3253968253968254        2.144634423695984E8
1.333333333333333         2.1303955919417968E8
1.3412698412698412        2.116204180633761E8
1.349206349206349         2.1020588824878132E8
1.3571428571428572        2.0879683791238934E8
1.365079365079365         2.0739239704611933E8
1.3730158730158728        2.0599270646157297E8
1.3809523809523807        2.0459786525875497E8
1.3888888888888886        2.032079383292471E8
1.3968253968253967        2.018229485120875E8
1.4047619047619044        2.004428729387852E8
1.4126984126984126        1.990676435674158E8
1.4206349206349205        1.9769715190580502E8
1.4285714285714284        1.963312767797062E8
1.4365079365079363        1.9497083021918276E8
1.4444444444444444        1.936150006439364E8
1.452380952380952         1.9226392121394962E8
1.4603174603174605        1.9091768516247123E8
1.4682539682539681        1.895763537902661E8
1.476190476190476         1.8823994934837785E8
1.484126984126984         1.8690845166546917E8
1.4920634920634923        1.8558179851960555E8
1.5                       1.842598897545285E8
1.5079365079365081        1.8294261335050112E8
1.515873015873016         1.816307267962521E8
1.5238095238095242        1.803234749705645E8
1.5317460317460316        1.7902098342436314E8
1.5396825396825398        1.7772333956348178E8
1.5476190476190477        1.76430601081696E8
1.5555555555555556        1.7514278951748008E8
1.5634920634920637        1.738598871446206E8
1.5714285714285712        1.7258183719665325E8
1.5793650793650793        1.7130854742512724E8
1.5873015873015872        1.700399145673054E8
1.5952380952380953        1.687766431433773E8
1.603174603174603         1.6751803258715907E8
1.611111111111111         1.6626420090519047E8
1.6190476190476188        1.6501522975167564E8
1.626984126984127         1.637711732304519E8
1.6349206349206347        1.6253205207648537E8
1.6428571428571428        1.6129785079257548E8
1.6507936507936507        1.6006851774122232E8
1.6587301587301588        1.588439681916802E8
1.6666666666666665        1.5762410726542872E8
1.6746031746031746        1.56409588096557E8
1.6825396825396826        1.55199762794802E8
1.6904761904761905        1.5399474189281654E8
1.6984126984126982        1.5279460137626678E8
1.7063492063492063        1.515993917804073E8
1.7142857142857142        1.5040913295026997E8
1.7222222222222223        1.4922381140783155E8
1.7301587301587302        1.4804338032606372E8
1.738095238095238         1.468677621099092E8
1.746031746031746         1.4569686989325202E8
1.753968253968254         1.4453130705666187E8
1.761904761904762         1.4337047649291787E8
1.7698412698412698        1.4221448137225717E8
1.777777777777778         1.410633921308586E8
1.7857142857142856        1.3991725578764603E8
1.7936507936507935        1.3877609123963046E8
1.8015873015873014        1.3763988684491768E8
1.8095238095238095        1.3650860029333732E8
1.8174603174603172        1.3538216076471615E8
1.8253968253968254        1.3426048903053147E8
1.8333333333333333        1.3314414036545222E8
1.8412698412698414        1.3203256651823775E8
1.849206349206349         1.30925863383242E8
1.8571428571428572        1.2982409595285718E8
1.8650793650793651        1.2872730776667121E8
1.873015873015873         1.2763551670083775E8
1.880952380952381         1.265487127534972E8
1.8888888888888888        1.2546685782617529E8
1.896825396825397         1.2438988750119269E8
1.9047619047619047        1.2331772982011092E8
1.9126984126984128        1.2225089365297408E8
1.9206349206349207        1.2118887766403255E8
1.9285714285714284        1.2013177059472649E8
1.9365079365079363        1.1907963210611016E8
1.9444444444444444        1.1803250229740028E8
1.9523809523809523        1.1699039795030686E8
1.96031746031746          1.159533105042107E8
1.968253968253968         1.1492120576216476E8
1.976190476190476         1.1389402532772696E8
1.984126984126984         1.1287170410794951E8
1.992063492063492         1.1185470627920425E8
2                         1.1084257542500412E8
2.0079365079365075        1.0983539323956712E8
2.015873015873016         1.0883321416265357E8
2.0238095238095237        1.0783607488612902E8
2.0317460317460316        1.0684399101607886E8
2.039682539682539         1.0585695522585063E8
2.0476190476190474        1.0487493689999299E8
2.0555555555555554        1.0389788326910791E8
2.0634920634920633        1.029257356890972E8
2.071428571428571         1.0195891539645116E8
2.079365079365079         1.0099700883710296E8
2.087301587301587         1.0004009076447272E8
2.0952380952380953        9.90882104946352E7
2.1031746031746033        9.814140132934918E7
2.1111111111111107        9.71996776006047E7
2.1190476190476195        9.626303299025445E7
2.126984126984127         9.533144012467225E7
2.134920634920635         9.44048514444614E7
2.142857142857143         9.348321430806012E7
2.150793650793651         9.256690878583914E7
2.158730158730159         9.165556207002953E7
2.1666666666666665        9.074924206878895E7
2.1746031746031744        8.984799305532706E7
2.182539682539683         8.895184493820724E7
2.1904761904761907        8.806081065482296E7
2.1984126984126986        8.717488464692512E7
2.206349206349206         8.629404241818155E7
2.2142857142857144        8.541824117377353E7
2.2222222222222223        8.454743379514691E7
2.2301587301587302        8.368196096785511E7
2.238095238095238         8.282148845208149E7
2.246031746031746         8.196607738670483E7
2.253968253968254         8.111576705580816E7
2.261904761904762         8.02705839418192E7
2.2698412698412698        7.94305394361501E7
2.2777777777777777        7.859562846048412E7
2.285714285714286         7.776582899868931E7
2.2936507936507935        7.69411025393689E7
2.3015873015873014        7.612140697113553E7
2.3095238095238093        7.5307045354843E7
2.3174603174603177        7.449771979077274E7
2.325396825396825         7.369348469452722E7
2.3333333333333335        7.289437437368609E7
2.341269841269841         7.210041180820854E7
2.3492063492063493        7.131160664827353E7
2.357142857142857         7.05279539716993E7
2.365079365079365         6.974943380090332E7
2.373015873015873         6.897601137941743E7
2.3809523809523814        6.820764902507098E7
2.3888888888888893        6.744461391607495E7
2.396825396825397         6.668664218035861E7
2.4047619047619047        6.5933781510357484E7
2.4126984126984126        6.518606120781833E7
2.4206349206349205        6.444350063033977E7
2.4285714285714284        6.370610744826513E7
2.4365079365079363        6.297387652906078E7
2.4444444444444438        6.224678944915742E7
2.4523809523809526        6.152481463327413E7
2.46031746031746          6.080791822360048E7
2.468253968253968         6.0096333204443224E7
2.476190476190476         5.9389827396805614E7
2.4841269841269837        5.8688441736903206E7
2.4920634920634916        5.7992200429943964E7
2.4999999999999996        5.730111902911511E7
2.5079365079365075        5.661520292518696E7
2.515873015873016         5.59344463491622E7
2.5238095238095237        5.525883188794448E7
2.5317460317460316        5.4588330513034254E7
2.5396825396825395        5.392291150602014E7
2.547619047619048         5.326277524784075E7
2.5555555555555554        5.260771886678166E7
2.5634920634920633        5.195777643224769E7
2.571428571428571         5.131296689640151E7
2.579365079365079         5.0673301760939136E7
2.587301587301587         5.0038783774914265E7
2.595238095238095         4.940940604739466E7
2.603174603174603         4.8785151574932165E7
2.6111111111111103        4.816599318386169E7
2.6190476190476186        4.7551902562314376E7
2.6269841269841265        4.694304899927468E7
2.6349206349206344        4.633925651063414E7
2.642857142857142         4.574055213321412E7
2.6507936507936503        4.5146949339313984E7
2.658730158730158         4.4558455263569966E7
2.666666666666666         4.397506958634779E7
2.674603174603174         4.339678374857944E7
2.682539682539682         4.2823580498038E7
2.69047619047619          4.2255433767053366E7
2.6984126984126977        4.169231685917656E7
2.7063492063492056        4.113436937367424E7
2.7142857142857135        4.058143978197399E7
2.7222222222222214        4.0033547859031595E7
2.7301587301587293        3.9490701305690825E7
2.7380952380952372        3.8952902512867816E7
2.7460317460317456        3.842014760967449E7
2.7539682539682535        3.789242577300405E7
2.7619047619047614        3.736971879856886E7
2.769841269841269         3.6852000933397666E7
2.7777777777777772        3.6339246263659544E7
2.7857142857142847        3.583156601600969E7
2.793650793650793         3.532883068594451E7
2.8015873015873005        3.4831052515016206E7
2.8095238095238084        3.4338233098459214E7
2.8174603174603168        3.385036966941807E7
2.8253968253968247        3.336745429274649E7
2.8333333333333326        3.2889473262264326E7
2.8412698412698396        3.24164067014611E7
2.849206349206348         3.1948228367654495E7
2.857142857142856         3.1484912282525264E7
2.865079365079364         3.102654258872536E7
2.8730158730158717        3.0573009391006522E7
2.88095238095238          3.01243171254115E7
2.888888888888888         2.9680460951218296E7
2.8968253968253954        2.9241432539948873E7
2.904761904761903         2.8807219397472806E7
2.9126984126984112        2.837780434214264E7
2.920634920634919         2.795316513895524E7
2.928571428571427         2.753327428974198E7
2.936507936507935         2.711810493906936E7
2.9444444444444433        2.6707715516607344E7
2.952380952380951         2.6302013353789955E7
2.9603174603174582        2.5900994882176824E7
2.9682539682539666        2.550464857645655E7
2.9761904761904745        2.5112960230878826E7
2.9841269841269824        2.4725912393827602E7
2.9920634920634903        2.4343483920226213E7
2.9999999999999982        2.3965649641766854E7
3.0079365079365057        2.3592380154971514E7
3.015873015873014         2.322364702225233E7
3.023809523809522         2.2859484581515417E7
3.0317460317460303        2.249981505675752E7
3.0396825396825373        2.214462685621241E7
3.0476190476190457        2.179390171247919E7
3.0555555555555536        2.1447619422703087E7
3.0634920634920615        2.110575738112842E7
3.0714285714285694        2.076829019920303E7
3.0793650793650778        2.0435189413232613E7
3.087301587301585         2.010642327958408E7
3.095238095238093         1.9781961276453838E7
3.1031746031746006        1.946181572680829E7
3.1111111111111094        1.9145921482966926E7
3.119047619047617         1.883425922132576E7
3.1269841269841248        1.852680419361998E7
3.1349206349206327        1.8223530399147518E7
3.142857142857141         1.7924410201941423E7
3.150793650793649         1.7629414011910945E7
3.1587301587301564        1.7338510029947206E7
3.1666666666666647        1.705166405699571E7
3.1746031746031727        1.6768843292081086E7
3.1825396825396806        1.6490040762527278E7
3.190476190476188         1.62152017907449E7
3.198412698412696         1.5944300046358442E7
3.206349206349204         1.5677304992991209E7
3.214285714285712         1.5414185456715114E7
3.2222222222222197        1.5154909315450411E7
3.2301587301587276        1.4899443234307501E7
3.2380952380952355        1.464775244686592E7
3.2460317460317434        1.4399800582394997E7
3.2539682539682513        1.4155552757428579E7
3.261904761904759         1.3914986145577786E7
3.269841269841267         1.3678054547420057E7
3.277777777777775         1.3444725851986058E7
3.285714285714283         1.3214964908420488E7
3.293650793650791         1.2988736462125795E7
3.3015873015872987        1.2766004904924287E7
3.309523809523807         1.2546734057658758E7
3.3174603174603146        1.2330886985229772E7
3.3253968253968225        1.2118425844070034E7
3.3333333333333304        1.190931428321385E7
3.3412698412698387        1.1703517674874183E7
3.3492063492063466        1.150099655603273E7
3.357142857142854         1.1301714723665645E7
3.365079365079362         1.1105634008056084E7
3.37301587301587          1.0912716571914418E7
3.380952380952378         1.0722924710878467E7
3.3888888888888857        1.0536220676555015E7
3.3968253968253936        1.0352566522099338E7
3.404761904761901         1.0171923970335467E7
3.4126984126984095        9994256.173571829
3.420634920634917         9819521.035773303
3.4285714285714253        9647684.425567308
3.4365079365079327        9478708.032282958
3.444444444444441         9312552.507048937
3.452380952380949         9149179.158159738
3.460317460317457         8988549.792727426
3.468253968253965         8830626.573778609
3.4761904761904727        8675371.892794754
3.484126984126981         8522748.257696705
3.4920634920634885        8372719.497623984
3.4999999999999964        8225240.193160112
3.507936507936505         8080280.529448067
3.5158730158730123        7937802.107713992
3.52380952380952          7797766.229635855
3.531746031746028         7660135.063213328
3.5396825396825364        7524871.51775175
3.5476190476190443        7391939.129312906
3.5555555555555522        7261301.956631599
3.5634920634920597        7132924.4874981865
3.571428571428568         7006772.40105697
3.579365079365076         6882800.459266017
3.587301587301584         6760982.524996789
3.5952380952380913        6641281.893233353
3.6031746031745993        6523662.087578609
3.6111111111111076        6408087.600487041
3.6190476190476155        6294523.795086357
3.6269841269841234        6182936.814039545
3.6349206349206304        6073293.495445709
3.642857142857139         5965561.295781072
3.6507936507936467        5859708.728864953
3.6587301587301546        5755693.318498424
3.6666666666666625        5653492.261041642
3.674603174603171         5553071.892465512
3.682539682539679         5454399.106049131
3.6904761904761862        5357441.7799461
3.698412698412694         5262168.700479397
3.706349206349202         5168549.490151904
3.7142857142857104        5076554.540372071
3.722222222222218         4986154.948894822
3.730158730158726         4897322.742184451
3.738095238095234         4810019.807386272
3.746031746031742         4724226.5044314945
3.753968253968249         4639913.048390029
3.7619047619047574        4557050.37675235
3.7698412698412653        4475610.366782504
3.7777777777777732        4395565.775817741
3.785714285714281         4316890.184722722
3.7936507936507886        4239557.94449722
3.801587301587297         4163544.1260383204
3.809523809523805         4088824.6091314577
3.817460317460313         4015366.3993416247
3.8253968253968207        3943152.908442662
3.833333333333328         3872158.596782023
3.8412698412698365        3802358.695024953
3.8492063492063444        3733729.291682073
3.8571428571428523        3666247.286672516
3.8650793650793602        3599890.346998516
3.8730158730158686        3534636.8645310537
3.880952380952376         3470465.915906837
3.888888888888884         3407357.2759439517
3.896825396825392         3345283.2009963007
3.9047619047619           3284230.0193452644
3.9126984126984077        3224176.4333258946
3.9206349206349156        3165101.8898188183
3.9285714285714235        3106986.5939674345
3.936507936507932         3049811.4729043967
3.9444444444444398        2993558.1408957844
3.9523809523809468        2938208.8659021906
3.9603174603174547        2883746.537557461
3.968253968253963         2830154.636564361
3.976190476190471         2777410.421052837
3.984126984126979         2725502.9230797403
3.9920634920634868        2674414.837931505
3.9999999999999947        2624129.5346717285
4.007936507936502         2574631.036348251
4.0158730158730105        2525903.9913853444
4.023809523809518         2477933.6459334325
4.031746031746026         2430705.81717594
4.039682539682534         2384206.86759356
4.047619047619042         2338423.6613565674
4.05555555555555          2293337.9500055355
4.063492063492058         2248941.2333166865
4.071428571428565         2205219.789146368
4.079365079365074         2162160.4903828837
4.0873015873015826        2119750.7625856767
4.09523809523809          2077978.5611074567
4.103174603174598         2036832.348870573
4.111111111111105         1996301.0747974075
4.119047619047613         1956374.152894873
4.126984126984121         1917041.441992986
4.134920634920629         1878288.541576728
4.142857142857137         1840109.1766439704
4.150793650793645         1802492.7132329985
4.158730158730154         1765429.0538906776
4.166666666666661         1728908.5594854348
4.174603174603169         1692922.0306217808
4.182539682539677         1657460.6895109129
4.1904761904761845        1622516.1622971739
4.198412698412692         1588080.4618404682
4.2063492063492           1554145.9709545549
4.214285714285708         1520701.6258532554
4.222222222222217         1487742.9554336378
4.230158730158724         1455261.9534297283
4.238095238095232         1423251.068285351
4.246031746031741         1391703.1212007424
4.253968253968248         1360611.2908148537
4.261904761904756         1329969.098215589
4.2698412698412636        1299770.392277927
4.2777777777777715        1270009.335329872
4.28571428571428          1240680.389146311
4.293650793650788         1211775.2726100106
4.301587301587296         1183290.9611051143
4.309523809523803         1155221.6095722558
4.317460317460311         1127561.7482553592
4.325396825396819         1100306.2040380354
4.333333333333327         1073450.0876884644
4.341269841269835         1046988.7813506386
4.349206349206343         1020917.9262818699
4.357142857142851         995233.410836592
4.3650793650793585        969931.3586964367
4.373015873015866         945005.7563177928
4.380952380952374         920454.6913458373
4.388888888888881         896274.047160453
4.39682539682539          872460.0088682385
4.404761904761897         849008.9916348818
4.412698412698405         825917.6300199728
4.420634920634914         803182.7675070054
4.428571428571422         780801.4462285353
4.43650793650793          758770.8968864912
4.4444444444444375        737088.528867646
4.4523809523809454        715750.1319908659
4.460317460317453         694754.6071154268
4.468253968253961         674099.178421517
4.476190476190468         653781.3057267189
4.484126984126978         633798.6216645248
4.492063492063485         614148.9227969218
4.499999999999993         594830.1608906835
4.507936507936501         575840.4343573598
4.515873015873009         557177.9798569919
4.523809523809517         538841.1640655107
4.5317460317460245        520827.17149897094
4.539682539682532         503135.4598930595
4.54761904761904          485764.25708818797
4.555555555555549         468711.9686896552
4.563492063492056         451977.1248658784
4.571428571428565         435558.3730330782
4.579365079365072         419454.47068473743
4.58730158730158          403664.2783658221
4.595238095238088         388186.7527917643
4.603174603174596         373020.94011220493
4.611111111111104         358165.0672216513
4.619047619047612         343618.93871994107
4.62698412698412          329381.5010856207
4.634920634920627         315451.82912913675
4.642857142857136         301829.0825410817
4.650793650793643         288512.5000124888
4.658730158730152         275501.39348876034
4.666666666666659         262795.1425572443
4.674603174603167         250393.18896843612
4.682539682539676         238295.03129081742
4.690476190476184         226499.64158919582
4.6984126984126915        215007.0084438091
4.7063492063491985        203816.56347514383
4.714285714285706         192927.82556961538
4.722222222222214         182340.36693987707
4.730158730158721         172053.80858920488
4.73809523809523          162067.81590318817
4.746031746031738         152382.09436870704
4.753968253968246         142996.38542020894
4.761904761904754         133910.46241327666
4.769841269841262         125123.79823734424
4.77777777777777          116636.44886793704
4.785714285714277         108448.14736566653
4.7936507936507855        100558.68111322956
4.8015873015872925        92967.86697892475
4.8095238095238           85675.54806389892
4.817460317460309         78681.59057322168
4.825396825396817         71985.88081078601
4.833333333333325         65588.3222980349
4.841269841269833         59488.833016516866
4.849206349206341         53687.19257616919
4.857142857142849         48183.45259736058
4.865079365079356         42977.51155902346
4.873015873015864         38069.297110122774
4.880952380952373         33458.7499053117
4.88888888888888          29145.821595542777
4.896825396825388         25130.47294073859
4.904761904761896         21412.672044523504
4.912698412698405         17992.392711014134
4.920634920634912         14869.61292367209
4.928571428571421         12044.272597899206
4.93650793650793          9516.3907088533
4.944444444444438         7285.940839399178
4.952380952380948         5352.908035959591
4.960317460317457         3717.2809716049437
4.968253968253966         2379.0511575576616
4.976190476190474         1338.2122760243053
4.984126984126982         594.7596343560128
4.992063492063492         148.68974053685437
5                         3.29437986077447E-10
